# vtk DataFile Version 1.0
A voxel
ASCII

DATASET UNSTRUCTURED_GRID
POINTS 8 float
0.00 0.00 0.00 1.00 0.00 0.00 1.00 1.00 0.00 0.00 1.00 0.00 0.00 0.00 1.00 1.00 0.00 1.00 1.00 1.00 1.00 0.00 1.00 1.00

CELLS 1 9
8 4 7 6 5 0 3 2 1

CELL_TYPES 1
12

CELL_DATA 1
SCALARS PUMP_ON_OFF float
LOOKUP_TABLE custom_table
1.0