# vtk DataFile Version 5.1
vtk output
ASCII
DATASET POLYDATA
POINTS 131 double
185817.5 343393.5 30.11 185830.9 343358 29.76 185865.4 343457.3 29.76 
185885.8 343508.7 29.75 185923.3 343603.4 29.74 185967.9 343701.7 29.73 
185982.7 343634.6 28.28 186014.9 343799 29.69 186015.3 343740.4 27.97 
186044.8 343779.2 28.15 186061.3 343831.5 27.9 186115.8 343989.7 29.56 
186123 343921.8 27.92 186144.2 343991.9 27.99 186167.2 344084.7 29.48 
186167.2 344084.7 29.48 186216.5 344120 27.61 186216.5 344120 27.6 
186232.1 344175.5 27.56 186232.1 344175.5 27.56 186282.8 344218.2 27.94 
186282.9 344218.2 27.94 186288.7 344280.5 27.89 186288.7 344280.5 27.89 
186316.126 344357.688 29.32 186324.3 344634.2 34.18 186325.8 344315.2 27.97 
186325.8 344315.3 27.97 186340 344369.1 27.81 186340 344369.1 27.81 
186377.4 344409.5 27.9 186377.4 344409.5 27.9 186389 344796 27.49 
186391.7 344467.1 27.67 186391.7 344467.1 27.67 186397.4 344766.64 34.08 
186402.43 344819.95 27.47 186424.6 344560.5 29.4 186424.7 344560.5 29.4 
186426.6 344505.8 27.84 186426.6 344505.8 27.84 186428.9 344665.2 34.21 
186432.9 345004.7 26.98 186432.9 345004.7 26.98 186454.6 344960.7 26.96 
186454.6 344960.7 26.96 186458 344932 27.23 186458 344932 27.32 
186462 344930 27.46 186462.78 344930.12 27.44 186474.2 344960 27.36 
186474.2 344960 27.36 186476.3 344596.3 27.65 186476.3 344596.3 27.65 
186478 344922 34.2 186480.49 344920.36 34.15 186485.6 344929.8 34.04 
186485.6 344929.8 34.04 186485.6 344929.8 34.04 186485.6 344929.8 34.04 
186487.12 344766.88 34.14 186491.2 344650.5 27.64 186491.2 344650.5 27.64 
186495.1 344948.1 34.09 186495.1 344948.1 34.09 186495.1 344948.1 34.09 
186495.1 344948.1 34.09 186504.7 344966 34.11 186504.7 344966 34.11 
186510.66 344974.79 34.08 186523.9 344742.5 29.45 186523.9 344742.5 29.45 
186527.4 344683.8 27.55 186527.4 344683.8 27.55 186530 344990 27.1 
186540 344955 27.35 186548 344885 34.18 186548.53 344879.9 34.1 
186550 344765 27.62 186551 344883 34.17 186555.8 344892.1 34.19 
186555.8 344892.1 34.19 186560 344870 29.06 186565.7 344911 34.13 
186565.7 344911 34.13 186565.7 344911 34.13 186565.7 344911 34.13 
186568 345126 27.72 186569.14 345083.7 34.08 186575.03 344928.8 34.1 
186575.4 344928.7 34.14 186575.4 344928.7 34.14 186575.4 344928.7 34.14 
186575.4 344928.7 34.14 186576.8 344776.8 27.52 186576.8 344776.8 27.52 
186578.1 344841.9 29.38 186578.1 344841.9 29.38 186580 344980 27 
186595.1 344873.7 29.36 186595.1 344873.7 29.36 186603.3 344668 27.29 
186608.5 344897.9 29.3 186608.5 344897.9 29.3 186627.9 344933.2 29.28 
186627.9 344933.2 29.27 186640.5 344956.7 29.25 186640.5 344956.7 29.25 
186663.93 345093.31 34.12 186664 344996.8 29.28 186664 344996.8 29.28 
186672.8 344718.1 26.99 186682.408 345032.877 29.4 186684.5 345033.3 29.32 
186684.5 345033.3 29.32 186728.4 345100.1 27.24 186728.4 345100.1 27.24 
186748.2 345133.4 27.27 186748.2 345133.4 27.27 186763.6 345165.3 27.33 
186763.6 345165.3 27.33 186804.9 345200.5 27.1 186804.9 345200.5 27.1 
186814.2 345256.3 27.16 186814.2 345256.3 27.16 186854.3 345292.1 26.85 
186854.3 345292.1 26.85 186869.4 345344.6 25.08 186869.4 345344.6 25.08 
186901 345383.9 24.96 186901 345383.9 24.96 
METADATA
INFORMATION 2
NAME L2_NORM_RANGE LOCATION vtkDataArray
DATA 2 390420 392711 
NAME L2_NORM_FINITE_RANGE LOCATION vtkDataArray
DATA 2 390420 392711 

VERTICES 2 131
OFFSETS vtktypeint64
0 131 
CONNECTIVITY vtktypeint64
0 1 2 3 4 5 6 7 8 
9 10 11 12 13 14 15 16 17 
18 19 20 21 22 23 24 25 26 
27 28 29 30 31 32 33 34 35 
36 37 38 39 40 41 42 43 44 
45 46 47 48 49 50 51 52 53 
54 55 56 57 58 59 60 61 62 
63 64 65 66 67 68 69 70 71 
72 73 74 75 76 77 78 79 80 
81 82 83 84 85 86 87 88 89 
90 91 92 93 94 95 96 97 98 
99 100 101 102 103 104 105 106 107 
108 109 110 111 112 113 114 115 116 
117 118 119 120 121 122 123 124 125 
126 127 128 129 130 
POINT_DATA 131
FIELD FieldData 1
name 1 131 string
DKM455
DKM174
DKM173
DKM454
DKM171
DKM169
DKM170
DKM167
DKM168
DKM453
DKM166
DKM163
DKM164
DKM417
DKM161
CPT000000170697
DKM160
CPT000000170805
DKM159
CPT000000170810
CPT000000170607
DKM158
DKM157
CPT000000170824
CPT000000060593A
CPT000000162744
DKM156
CPT000000170804
DKM155
CPT000000170502
DKM154
CPT000000170825
Bpb007
DKM153
CPT000000170836
24SP2296DKMP001
24SP2296DKMP004
CPT000000170652
DKM151
DKM152
CPT000000170655
CPT000000162706
DKM405
CPT000000170844
DKM406
CPT000000170735
Bpb003
Bpb003a
Bpb002
24SP2296DKMP012
DKMP021
CPT000000170603
DKM150
CPT000000170553
Bpb001
24SP2296DKMP013
DKM468-V
DKMP468
CPT000000170820
CPT000000170828
24SP2296DKMP003
DKM149
CPT000000170741
DKM022-V
DKMP022
CPT000000170520
CPT000000170740
DKMP023
CPT000000170651
24SP2296DKMP009
DKM147
CPT000000170798
DKM148
CPT000000170827
B60A1480
B60A0074
Bpb004
24SP2296DKMP014
B60A0179
Bpb005
DKM019
CPT000000170573
Bpb006
DKM020-V
DKMP020
CPT000000170628
CPT000000170640
Bpb008
24SP2296DKMP005
24SP2296DKMP011
DKM018-V
DKMP018
CPT000000170575
CPT000000170578
DKM146
CPT000000170503
DKM145
CPT000000170527
B60A1479
DKM017
CPT000000170633
CPT000000209575
DKM016
CPT000000170574
DKMP012
CPT000000170536
DKMP011
CPT000000170554
24SP2296DKMP007
DKM144
CPT000000170481
CPT000000209576
CPT000000060594A
DKM143
CPT000000170771
DKM142
CPT000000170555
DKM141
CPT000000170582
DKM140
CPT000000170761
DKM139
CPT000000170636
DKM138
CPT000000170698
DKM137
CPT000000170755
DKM136
CPT000000170642
DKM135
CPT000000170544

METADATA
INFORMATION 1
NAME DISCRETE_VALUE_SAMPLE_PARAMETERS LOCATION vtkAbstractArray
DATA 2 0 0 

