# vtk DataFile Version 4.2
vtk output
ASCII
DATASET POLYDATA
POINTS 5 double
0.50000 0.50000 1.00000
0.00000 0.00000 0.00000
1.00000 0.00000 0.00000
1.00000 1.00000 0.00000
0.00000 1.00000 0.00000
POLYGONS 5 21
4 4 3 2 1
 3 0 1 2
 3 0 2 3
3 0 3 4
3 0 4 1

CELL_DATA 5
SCALARS Property float
LOOKUP_TABLE custom_table
1.000
1.000
1.000
1.000
1.000
