# vtk DataFile Version 4.2
vtk output
ASCII
DATASET POLYDATA
POINTS 13 double
0.500 0.000 0.000
0.433 0.250 0.000
0.250 0.433 0.000
0.000 0.500 0.000
-0.250 0.433 0.000
-0.433 0.250 0.000
-0.500 0.000 0.000
-0.433 -0.250 0.000
-0.250 -0.433 0.000
-0.000 -0.500 0.000
0.250 -0.433 0.000
0.433 -0.250 0.000
0.500 -0.000 0.000
POLYGONS 1 14
13 0 1 2 3 4 5 6 7 8 9 10 11 12 
CELL_DATA 1
SCALARS Property float
LOOKUP_TABLE custom_table
1.0