# vtk DataFile Version 4.2
vtk output
ASCII
DATASET POLYDATA
POINTS 1024 double
0.50000 0.00000 0.00000
0.50000 0.00000 -3.00000
0.49985 0.01227 0.00000
0.49985 0.01227 -3.00000
0.49940 0.02453 0.00000
0.49940 0.02453 -3.00000
0.49865 0.03678 0.00000
0.49865 0.03678 -3.00000
0.49759 0.04901 0.00000
0.49759 0.04901 -3.00000
0.49624 0.06121 0.00000
0.49624 0.06121 -3.00000
0.49459 0.07337 0.00000
0.49459 0.07337 -3.00000
0.49264 0.08548 0.00000
0.49264 0.08548 -3.00000
0.49039 0.09755 0.00000
0.49039 0.09755 -3.00000
0.48785 0.10955 0.00000
0.48785 0.10955 -3.00000
0.48502 0.12149 0.00000
0.48502 0.12149 -3.00000
0.48189 0.13336 0.00000
0.48189 0.13336 -3.00000
0.47847 0.14514 0.00000
0.47847 0.14514 -3.00000
0.47476 0.15684 0.00000
0.47476 0.15684 -3.00000
0.47077 0.16844 0.00000
0.47077 0.16844 -3.00000
0.46650 0.17995 0.00000
0.46650 0.17995 -3.00000
0.46194 0.19134 0.00000
0.46194 0.19134 -3.00000
0.45710 0.20262 0.00000
0.45710 0.20262 -3.00000
0.45199 0.21378 0.00000
0.45199 0.21378 -3.00000
0.44661 0.22481 0.00000
0.44661 0.22481 -3.00000
0.44096 0.23570 0.00000
0.44096 0.23570 -3.00000
0.43504 0.24645 0.00000
0.43504 0.24645 -3.00000
0.42886 0.25705 0.00000
0.42886 0.25705 -3.00000
0.42243 0.26750 0.00000
0.42243 0.26750 -3.00000
0.41573 0.27779 0.00000
0.41573 0.27779 -3.00000
0.40879 0.28790 0.00000
0.40879 0.28790 -3.00000
0.40160 0.29785 0.00000
0.40160 0.29785 -3.00000
0.39417 0.30762 0.00000
0.39417 0.30762 -3.00000
0.38651 0.31720 0.00000
0.38651 0.31720 -3.00000
0.37860 0.32659 0.00000
0.37860 0.32659 -3.00000
0.37048 0.33578 0.00000
0.37048 0.33578 -3.00000
0.36212 0.34477 0.00000
0.36212 0.34477 -3.00000
0.35355 0.35355 0.00000
0.35355 0.35355 -3.00000
0.34477 0.36212 0.00000
0.34477 0.36212 -3.00000
0.33578 0.37048 0.00000
0.33578 0.37048 -3.00000
0.32659 0.37860 0.00000
0.32659 0.37860 -3.00000
0.31720 0.38651 0.00000
0.31720 0.38651 -3.00000
0.30762 0.39417 0.00000
0.30762 0.39417 -3.00000
0.29785 0.40160 0.00000
0.29785 0.40160 -3.00000
0.28790 0.40879 0.00000
0.28790 0.40879 -3.00000
0.27779 0.41573 0.00000
0.27779 0.41573 -3.00000
0.26750 0.42243 0.00000
0.26750 0.42243 -3.00000
0.25705 0.42886 0.00000
0.25705 0.42886 -3.00000
0.24645 0.43504 0.00000
0.24645 0.43504 -3.00000
0.23570 0.44096 0.00000
0.23570 0.44096 -3.00000
0.22481 0.44661 0.00000
0.22481 0.44661 -3.00000
0.21378 0.45199 0.00000
0.21378 0.45199 -3.00000
0.20262 0.45710 0.00000
0.20262 0.45710 -3.00000
0.19134 0.46194 0.00000
0.19134 0.46194 -3.00000
0.17995 0.46650 0.00000
0.17995 0.46650 -3.00000
0.16844 0.47077 0.00000
0.16844 0.47077 -3.00000
0.15684 0.47476 0.00000
0.15684 0.47476 -3.00000
0.14514 0.47847 0.00000
0.14514 0.47847 -3.00000
0.13336 0.48189 0.00000
0.13336 0.48189 -3.00000
0.12149 0.48502 0.00000
0.12149 0.48502 -3.00000
0.10955 0.48785 0.00000
0.10955 0.48785 -3.00000
0.09755 0.49039 0.00000
0.09755 0.49039 -3.00000
0.08548 0.49264 0.00000
0.08548 0.49264 -3.00000
0.07337 0.49459 0.00000
0.07337 0.49459 -3.00000
0.06121 0.49624 0.00000
0.06121 0.49624 -3.00000
0.04901 0.49759 0.00000
0.04901 0.49759 -3.00000
0.03678 0.49865 0.00000
0.03678 0.49865 -3.00000
0.02453 0.49940 0.00000
0.02453 0.49940 -3.00000
0.01227 0.49985 0.00000
0.01227 0.49985 -3.00000
0.00000 0.50000 0.00000
0.00000 0.50000 -3.00000
-0.01227 0.49985 0.00000
-0.01227 0.49985 -3.00000
-0.02453 0.49940 0.00000
-0.02453 0.49940 -3.00000
-0.03678 0.49865 0.00000
-0.03678 0.49865 -3.00000
-0.04901 0.49759 0.00000
-0.04901 0.49759 -3.00000
-0.06121 0.49624 0.00000
-0.06121 0.49624 -3.00000
-0.07337 0.49459 0.00000
-0.07337 0.49459 -3.00000
-0.08548 0.49264 0.00000
-0.08548 0.49264 -3.00000
-0.09755 0.49039 0.00000
-0.09755 0.49039 -3.00000
-0.10955 0.48785 0.00000
-0.10955 0.48785 -3.00000
-0.12149 0.48502 0.00000
-0.12149 0.48502 -3.00000
-0.13336 0.48189 0.00000
-0.13336 0.48189 -3.00000
-0.14514 0.47847 0.00000
-0.14514 0.47847 -3.00000
-0.15684 0.47476 0.00000
-0.15684 0.47476 -3.00000
-0.16844 0.47077 0.00000
-0.16844 0.47077 -3.00000
-0.17995 0.46650 0.00000
-0.17995 0.46650 -3.00000
-0.19134 0.46194 0.00000
-0.19134 0.46194 -3.00000
-0.20262 0.45710 0.00000
-0.20262 0.45710 -3.00000
-0.21378 0.45199 0.00000
-0.21378 0.45199 -3.00000
-0.22481 0.44661 0.00000
-0.22481 0.44661 -3.00000
-0.23570 0.44096 0.00000
-0.23570 0.44096 -3.00000
-0.24645 0.43504 0.00000
-0.24645 0.43504 -3.00000
-0.25705 0.42886 0.00000
-0.25705 0.42886 -3.00000
-0.26750 0.42243 0.00000
-0.26750 0.42243 -3.00000
-0.27779 0.41573 0.00000
-0.27779 0.41573 -3.00000
-0.28790 0.40879 0.00000
-0.28790 0.40879 -3.00000
-0.29785 0.40160 0.00000
-0.29785 0.40160 -3.00000
-0.30762 0.39417 0.00000
-0.30762 0.39417 -3.00000
-0.31720 0.38651 0.00000
-0.31720 0.38651 -3.00000
-0.32659 0.37860 0.00000
-0.32659 0.37860 -3.00000
-0.33578 0.37048 0.00000
-0.33578 0.37048 -3.00000
-0.34477 0.36212 0.00000
-0.34477 0.36212 -3.00000
-0.35355 0.35355 0.00000
-0.35355 0.35355 -3.00000
-0.36212 0.34477 0.00000
-0.36212 0.34477 -3.00000
-0.37048 0.33578 0.00000
-0.37048 0.33578 -3.00000
-0.37860 0.32659 0.00000
-0.37860 0.32659 -3.00000
-0.38651 0.31720 0.00000
-0.38651 0.31720 -3.00000
-0.39417 0.30762 0.00000
-0.39417 0.30762 -3.00000
-0.40160 0.29785 0.00000
-0.40160 0.29785 -3.00000
-0.40879 0.28790 0.00000
-0.40879 0.28790 -3.00000
-0.41573 0.27779 0.00000
-0.41573 0.27779 -3.00000
-0.42243 0.26750 0.00000
-0.42243 0.26750 -3.00000
-0.42886 0.25705 0.00000
-0.42886 0.25705 -3.00000
-0.43504 0.24645 0.00000
-0.43504 0.24645 -3.00000
-0.44096 0.23570 0.00000
-0.44096 0.23570 -3.00000
-0.44661 0.22481 0.00000
-0.44661 0.22481 -3.00000
-0.45199 0.21378 0.00000
-0.45199 0.21378 -3.00000
-0.45710 0.20262 0.00000
-0.45710 0.20262 -3.00000
-0.46194 0.19134 0.00000
-0.46194 0.19134 -3.00000
-0.46650 0.17995 0.00000
-0.46650 0.17995 -3.00000
-0.47077 0.16844 0.00000
-0.47077 0.16844 -3.00000
-0.47476 0.15684 0.00000
-0.47476 0.15684 -3.00000
-0.47847 0.14514 0.00000
-0.47847 0.14514 -3.00000
-0.48189 0.13336 0.00000
-0.48189 0.13336 -3.00000
-0.48502 0.12149 0.00000
-0.48502 0.12149 -3.00000
-0.48785 0.10955 0.00000
-0.48785 0.10955 -3.00000
-0.49039 0.09755 0.00000
-0.49039 0.09755 -3.00000
-0.49264 0.08548 0.00000
-0.49264 0.08548 -3.00000
-0.49459 0.07337 0.00000
-0.49459 0.07337 -3.00000
-0.49624 0.06121 0.00000
-0.49624 0.06121 -3.00000
-0.49759 0.04901 0.00000
-0.49759 0.04901 -3.00000
-0.49865 0.03678 0.00000
-0.49865 0.03678 -3.00000
-0.49940 0.02453 0.00000
-0.49940 0.02453 -3.00000
-0.49985 0.01227 0.00000
-0.49985 0.01227 -3.00000
-0.50000 0.00000 0.00000
-0.50000 0.00000 -3.00000
-0.49985 -0.01227 0.00000
-0.49985 -0.01227 -3.00000
-0.49940 -0.02453 0.00000
-0.49940 -0.02453 -3.00000
-0.49865 -0.03678 0.00000
-0.49865 -0.03678 -3.00000
-0.49759 -0.04901 0.00000
-0.49759 -0.04901 -3.00000
-0.49624 -0.06121 0.00000
-0.49624 -0.06121 -3.00000
-0.49459 -0.07337 0.00000
-0.49459 -0.07337 -3.00000
-0.49264 -0.08548 0.00000
-0.49264 -0.08548 -3.00000
-0.49039 -0.09755 0.00000
-0.49039 -0.09755 -3.00000
-0.48785 -0.10955 0.00000
-0.48785 -0.10955 -3.00000
-0.48502 -0.12149 0.00000
-0.48502 -0.12149 -3.00000
-0.48189 -0.13336 0.00000
-0.48189 -0.13336 -3.00000
-0.47847 -0.14514 0.00000
-0.47847 -0.14514 -3.00000
-0.47476 -0.15684 0.00000
-0.47476 -0.15684 -3.00000
-0.47077 -0.16844 0.00000
-0.47077 -0.16844 -3.00000
-0.46650 -0.17995 0.00000
-0.46650 -0.17995 -3.00000
-0.46194 -0.19134 0.00000
-0.46194 -0.19134 -3.00000
-0.45710 -0.20262 0.00000
-0.45710 -0.20262 -3.00000
-0.45199 -0.21378 0.00000
-0.45199 -0.21378 -3.00000
-0.44661 -0.22481 0.00000
-0.44661 -0.22481 -3.00000
-0.44096 -0.23570 0.00000
-0.44096 -0.23570 -3.00000
-0.43504 -0.24645 0.00000
-0.43504 -0.24645 -3.00000
-0.42886 -0.25705 0.00000
-0.42886 -0.25705 -3.00000
-0.42243 -0.26750 0.00000
-0.42243 -0.26750 -3.00000
-0.41573 -0.27779 0.00000
-0.41573 -0.27779 -3.00000
-0.40879 -0.28790 0.00000
-0.40879 -0.28790 -3.00000
-0.40160 -0.29785 0.00000
-0.40160 -0.29785 -3.00000
-0.39417 -0.30762 0.00000
-0.39417 -0.30762 -3.00000
-0.38651 -0.31720 0.00000
-0.38651 -0.31720 -3.00000
-0.37860 -0.32659 0.00000
-0.37860 -0.32659 -3.00000
-0.37048 -0.33578 0.00000
-0.37048 -0.33578 -3.00000
-0.36212 -0.34477 0.00000
-0.36212 -0.34477 -3.00000
-0.35355 -0.35355 0.00000
-0.35355 -0.35355 -3.00000
-0.34477 -0.36212 0.00000
-0.34477 -0.36212 -3.00000
-0.33578 -0.37048 0.00000
-0.33578 -0.37048 -3.00000
-0.32659 -0.37860 0.00000
-0.32659 -0.37860 -3.00000
-0.31720 -0.38651 0.00000
-0.31720 -0.38651 -3.00000
-0.30762 -0.39417 0.00000
-0.30762 -0.39417 -3.00000
-0.29785 -0.40160 0.00000
-0.29785 -0.40160 -3.00000
-0.28790 -0.40879 0.00000
-0.28790 -0.40879 -3.00000
-0.27779 -0.41573 0.00000
-0.27779 -0.41573 -3.00000
-0.26750 -0.42243 0.00000
-0.26750 -0.42243 -3.00000
-0.25705 -0.42886 0.00000
-0.25705 -0.42886 -3.00000
-0.24645 -0.43504 0.00000
-0.24645 -0.43504 -3.00000
-0.23570 -0.44096 0.00000
-0.23570 -0.44096 -3.00000
-0.22481 -0.44661 0.00000
-0.22481 -0.44661 -3.00000
-0.21378 -0.45199 0.00000
-0.21378 -0.45199 -3.00000
-0.20262 -0.45710 0.00000
-0.20262 -0.45710 -3.00000
-0.19134 -0.46194 0.00000
-0.19134 -0.46194 -3.00000
-0.17995 -0.46650 0.00000
-0.17995 -0.46650 -3.00000
-0.16844 -0.47077 0.00000
-0.16844 -0.47077 -3.00000
-0.15684 -0.47476 0.00000
-0.15684 -0.47476 -3.00000
-0.14514 -0.47847 0.00000
-0.14514 -0.47847 -3.00000
-0.13336 -0.48189 0.00000
-0.13336 -0.48189 -3.00000
-0.12149 -0.48502 0.00000
-0.12149 -0.48502 -3.00000
-0.10955 -0.48785 0.00000
-0.10955 -0.48785 -3.00000
-0.09755 -0.49039 0.00000
-0.09755 -0.49039 -3.00000
-0.08548 -0.49264 0.00000
-0.08548 -0.49264 -3.00000
-0.07337 -0.49459 0.00000
-0.07337 -0.49459 -3.00000
[...]
CELL_DATA 258
SCALARS Property float
LOOKUP_TABLE custom_table
1.000
1.000
1.000
1.000
1.000
1.000
1.000
1.000
1.000
1.000
1.000
1.000
1.000
1.000
1.000
1.000
1.000
1.000
1.000
1.000
1.000
1.000
1.000
1.000
1.000
1.000
1.000
1.000
1.000
1.000
1.000
1.000
1.000
1.000
1.000
1.000
1.000
1.000
1.000
1.000
1.000
1.000
1.000
1.000
1.000
1.000
1.000
1.000
1.000
1.000
1.000
1.000
1.000
1.000
1.000
1.000
1.000
1.000
1.000
1.000
1.000
1.000
1.000
1.000
1.000
1.000
1.000
1.000
1.000
1.000
1.000
1.000
1.000
1.000
1.000
1.000
1.000
1.000
1.000
1.000
1.000
1.000
1.000
1.000
1.000
1.000
1.000
1.000
1.000
1.000
1.000
1.000
1.000
1.000
1.000
1.000
1.000
1.000
1.000
1.000
1.000
1.000
1.000
1.000
1.000
1.000
1.000
1.000
1.000
1.000
1.000
1.000
1.000
1.000
1.000
1.000
1.000
1.000
1.000
1.000
1.000
1.000
1.000
1.000
1.000
1.000
1.000
1.000
1.000
1.000
1.000
1.000
1.000
1.000
1.000
1.000
1.000
1.000
1.000
1.000
1.000
1.000
1.000
1.000
1.000
1.000
1.000
1.000
1.000
1.000
1.000
1.000
1.000
1.000
1.000
1.000
1.000
1.000
1.000
1.000
1.000
1.000
1.000
1.000
1.000
1.000
1.000
1.000
1.000
1.000
1.000
1.000
1.000
1.000
1.000
1.000
1.000
1.000
1.000
1.000
1.000
1.000
1.000
1.000
1.000
1.000
1.000
1.000
1.000
1.000
1.000
1.000
1.000
1.000
1.000
1.000
1.000
1.000
1.000
1.000
1.000
1.000
1.000
1.000
1.000
1.000
1.000
1.000
1.000
1.000
1.000
1.000
1.000
1.000
1.000
1.000
1.000
1.000
1.000
1.000
1.000
1.000
1.000
1.000
1.000
1.000
1.000
1.000
1.000
1.000
1.000
1.000
1.000
1.000
1.000
1.000
1.000
1.000
1.000
1.000
1.000
1.000
1.000
1.000
1.000
1.000
1.000
1.000
1.000
1.000
1.000
1.000
1.000
1.000
1.000
1.000
1.000
1.000
