# vtk DataFile Version 4.2
vtk output
ASCII
DATASET POLYDATA
POINTS 4 double
1.000 5.000 0.000
2.000 5.000 0.000
2.000 0.000 0.000
1.000 0.000 0.000
POLYGONS 1 5
4 0 1 2 3 
CELL_DATA 1
SCALARS Property float
LOOKUP_TABLE custom_table
2.0